18
	Energy:      14.4179359
C          1.44688        0.08883        2.31451
C          0.90075       -1.08592        1.79246
C         -0.44652       -1.12882        1.42029
C         -1.26314        0.00750        1.57032
C          0.64736        1.22440        2.46275
C         -0.70025        1.18691        2.09145
H          2.48999        0.11995        2.60161
H          1.52238       -1.96404        1.67391
H         -0.84480       -2.04705        1.01032
H          1.07202        2.13504        2.86517
C         -2.72031       -0.02263        1.16650
H         -1.30291        2.07824        2.21396
C         -3.55585       -0.98802        2.01586
H         -2.79691       -0.29899        0.09284
H         -3.16558        0.98966        1.28507
F         -3.12147       -2.29204        1.86738
F         -4.87720       -0.91885        1.61376
F         -3.47725       -0.63155        3.35056
