14
	Energy:      11.1888340
C          1.34904        0.14141        2.35800
C          0.99568       -0.99683        1.62354
C         -0.30226       -1.11279        1.10182
C         -1.23867       -0.09428        1.31555
C          0.41301        1.15977        2.57165
C         -0.88020        1.04167        2.05046
H          2.34973        0.23356        2.76172
O          1.90848       -1.96935        1.42620
H         -0.58159       -1.99096        0.53288
Cl         0.86085        2.58394        3.49264
S         -2.89317       -0.24437        0.64929
H         -1.60362        1.83014        2.21643
H          1.70529       -2.77183        0.92468
H         -3.36176       -0.88291        1.81279
