14
	Energy:      11.7027122
C          1.30425        0.01621       -1.57878
C          0.83735       -1.14797       -2.19774
C         -0.50906       -1.25840       -2.55724
C         -1.39050       -0.20472       -2.29825
C          0.42395        1.07752       -1.31618
C         -0.92686        0.96084       -1.67944
H          2.34910        0.09102       -1.30458
H          1.51911       -1.96427       -2.39864
H         -0.86909       -2.15979       -3.03614
N          0.89514        2.25722       -0.68941
H         -2.43280       -0.29108       -2.57693
H         -1.61833        1.77078       -1.48357
H          0.25491        3.04063       -0.49336
H          1.88545        2.35027       -0.41979
