12
	Energy:      10.3943950
C          1.39296        0.18607        6.06918
C          0.92094       -0.98469        5.46443
C         -0.43002       -1.09548        5.11536
C         -1.30881       -0.03635        5.37071
C          0.51487        1.24569        6.32491
C         -0.83594        1.13405        5.97550
H          2.43796        0.27210        6.33934
Cl         2.02179       -2.31228        5.14419
H         -0.79549       -2.00100        4.64753
Cl         1.10693        2.71265        7.08280
Cl        -3.00172       -0.17572        4.93305
H         -1.51547        1.95355        6.17317
