14
	Energy:      11.2260948
C          1.29930        0.00217       -1.59319
C          0.83089       -1.16174       -2.21176
C         -0.51571       -1.27157       -2.57052
C         -1.39654       -0.21750       -2.31133
C          0.41858        1.06308       -1.33097
C         -0.93263        0.94833       -1.69296
H          2.34601        0.07140       -1.32141
H          1.51191       -1.97859       -2.41299
H         -0.87640       -2.17289       -3.04906
B          0.94112        2.36886       -0.63767
H         -2.43897       -0.30375       -2.58959
H         -1.62834        1.75619       -1.49906
H          0.20301        3.26456       -0.41502
H          2.07803        2.46970       -0.33117
